<?xml version="1.0" encoding="UTF-8"?>

<!-- generated on 2024-01-23 12:05:33 by Eclipse SUMO GUI Version 1.19.0
<configuration xmlns:xsi="http://www.w3.org/2001/XMLSchema-instance" xsi:noNamespaceSchemaLocation="http://sumo.dlr.de/xsd/sumoConfiguration.xsd">

    <input>
        <net-file value="src/Intersection/Configuration/cross.net.xml"/>
        <route-files value="src/Intersection/Configuration/cross.rou.xml"/>
        <additional-files value="src/Intersection/Configuration/cross.det.xml"/>
    </input>

    <output>
        <tripinfo-output value="src/Intersection/Configuration/tripinfo.xml"/>
    </output>

    <time>
        <begin value="0"/>
    </time>

    <report>
        <verbose value="true"/>
        <no-step-log value="true"/>
    </report>

    <traci_server>
        <remote-port value="58342"/>
    </traci_server>

</configuration>
-->

<tripinfos xmlns:xsi="http://www.w3.org/2001/XMLSchema-instance" xsi:noNamespaceSchemaLocation="http://sumo.dlr.de/xsd/tripinfo_file.xsd">
    <tripinfo id="left_0" depart="0.00" departLane="52o_0" departPos="5.10" departSpeed="0.00" departDelay="0.00" arrival="88.00" arrivalLane="51i_0" arrivalPos="10.00" arrivalSpeed="12.14" duration="88.00" routeLength="1015.10" waitingTime="0.00" waitingCount="0" stopTime="0.00" timeLoss="14.48" rerouteNo="0" devices="tripinfo_left_0" vType="typeWE" speedFactor="1.06" vaporized=""/>
    <tripinfo id="right_2" depart="3.00" departLane="51o_0" departPos="5.10" departSpeed="0.00" departDelay="0.00" arrival="94.00" arrivalLane="52i_0" arrivalPos="10.00" arrivalSpeed="11.89" duration="91.00" routeLength="1015.10" waitingTime="0.00" waitingCount="0" stopTime="0.00" timeLoss="14.88" rerouteNo="0" devices="tripinfo_right_2" vType="typeWE" speedFactor="1.01" vaporized=""/>
    <tripinfo id="left_1" depart="5.00" departLane="52o_0" departPos="5.10" departSpeed="0.00" departDelay="3.00" arrival="100.00" arrivalLane="51i_0" arrivalPos="10.00" arrivalSpeed="11.10" duration="95.00" routeLength="1015.10" waitingTime="0.00" waitingCount="0" stopTime="0.00" timeLoss="15.68" rerouteNo="0" devices="tripinfo_left_1" vType="typeWE" speedFactor="0.94" vaporized=""/>
    <tripinfo id="left_4" depart="11.00" departLane="52o_0" departPos="5.10" departSpeed="0.00" departDelay="1.00" arrival="102.00" arrivalLane="51i_0" arrivalPos="10.00" arrivalSpeed="11.49" duration="91.00" routeLength="1015.10" waitingTime="0.00" waitingCount="0" stopTime="0.00" timeLoss="15.79" rerouteNo="0" devices="tripinfo_left_4" vType="typeWE" speedFactor="1.03" vaporized=""/>
    <tripinfo id="left_6" depart="22.00" departLane="52o_0" departPos="5.10" departSpeed="0.00" departDelay="0.00" arrival="111.00" arrivalLane="51i_0" arrivalPos="10.00" arrivalSpeed="11.94" duration="89.00" routeLength="1015.10" waitingTime="0.00" waitingCount="0" stopTime="0.00" timeLoss="14.49" rerouteNo="0" devices="tripinfo_left_6" vType="typeWE" speedFactor="1.05" vaporized=""/>
    <tripinfo id="right_7" depart="25.00" departLane="51o_0" departPos="5.10" departSpeed="0.00" departDelay="0.00" arrival="122.00" arrivalLane="52i_0" arrivalPos="10.00" arrivalSpeed="10.07" duration="97.00" routeLength="1015.10" waitingTime="0.00" waitingCount="0" stopTime="0.00" timeLoss="14.79" rerouteNo="0" devices="tripinfo_right_7" vType="typeWE" speedFactor="0.89" vaporized=""/>
    <tripinfo id="up_3" depart="4.00" departLane="53o_0" departPos="5.10" departSpeed="0.00" departDelay="0.00" arrival="131.00" arrivalLane="54i_0" arrivalPos="10.00" arrivalSpeed="12.22" duration="127.00" routeLength="1015.10" waitingTime="28.00" waitingCount="1" stopTime="0.00" timeLoss="54.72" rerouteNo="0" devices="tripinfo_up_3" vType="typeNS" speedFactor="1.08" vaporized=""/>
    <tripinfo id="down_9" depart="31.00" departLane="54o_0" departPos="5.10" departSpeed="0.00" departDelay="0.00" arrival="141.00" arrivalLane="53i_0" arrivalPos="10.00" arrivalSpeed="9.84" duration="110.00" routeLength="1015.10" waitingTime="1.00" waitingCount="1" stopTime="0.00" timeLoss="26.05" rerouteNo="0" devices="tripinfo_down_9" vType="typeNS" speedFactor="0.86" vaporized=""/>
    <tripinfo id="up_5" depart="16.00" departLane="53o_0" departPos="5.10" departSpeed="0.00" departDelay="0.00" arrival="144.00" arrivalLane="54i_0" arrivalPos="10.00" arrivalSpeed="9.68" duration="128.00" routeLength="1015.10" waitingTime="17.00" waitingCount="1" stopTime="0.00" timeLoss="42.06" rerouteNo="0" devices="tripinfo_up_5" vType="typeNS" speedFactor="0.83" vaporized=""/>
    <tripinfo id="up_10" depart="32.00" departLane="53o_0" departPos="5.10" departSpeed="0.00" departDelay="0.00" arrival="146.00" arrivalLane="54i_0" arrivalPos="10.00" arrivalSpeed="10.45" duration="114.00" routeLength="1015.10" waitingTime="4.00" waitingCount="1" stopTime="0.00" timeLoss="41.77" rerouteNo="0" devices="tripinfo_up_10" vType="typeNS" speedFactor="1.09" vaporized=""/>
    <tripinfo id="up_12" depart="51.00" departLane="53o_0" departPos="5.10" departSpeed="0.00" departDelay="0.00" arrival="148.00" arrivalLane="54i_0" arrivalPos="10.00" arrivalSpeed="10.94" duration="97.00" routeLength="1015.10" waitingTime="0.00" waitingCount="0" stopTime="0.00" timeLoss="22.64" rerouteNo="0" devices="tripinfo_up_12" vType="typeNS" speedFactor="1.05" vaporized=""/>
    <tripinfo id="down_14" depart="72.00" departLane="54o_0" departPos="5.10" departSpeed="0.00" departDelay="0.00" arrival="163.00" arrivalLane="53i_0" arrivalPos="10.00" arrivalSpeed="11.37" duration="91.00" routeLength="1015.10" waitingTime="0.00" waitingCount="0" stopTime="0.00" timeLoss="14.58" rerouteNo="0" devices="tripinfo_down_14" vType="typeNS" speedFactor="0.99" vaporized=""/>
    <tripinfo id="left_11" depart="49.00" departLane="52o_0" departPos="5.10" departSpeed="0.00" departDelay="0.00" arrival="177.00" arrivalLane="51i_0" arrivalPos="10.00" arrivalSpeed="12.05" duration="128.00" routeLength="1015.10" waitingTime="29.00" waitingCount="1" stopTime="0.00" timeLoss="53.32" rerouteNo="0" devices="tripinfo_left_11" vType="typeWE" speedFactor="1.03" vaporized=""/>
    <tripinfo id="right_8" depart="31.00" departLane="51o_0" departPos="5.10" departSpeed="0.00" departDelay="0.00" arrival="181.00" arrivalLane="52i_0" arrivalPos="10.00" arrivalSpeed="10.58" duration="150.00" routeLength="1015.10" waitingTime="44.00" waitingCount="1" stopTime="0.00" timeLoss="70.64" rerouteNo="0" devices="tripinfo_right_8" vType="typeWE" speedFactor="0.94" vaporized=""/>
    <tripinfo id="down_17" depart="85.00" departLane="54o_0" departPos="5.10" departSpeed="0.00" departDelay="0.00" arrival="190.00" arrivalLane="53i_0" arrivalPos="10.00" arrivalSpeed="10.90" duration="105.00" routeLength="1015.10" waitingTime="0.00" waitingCount="0" stopTime="0.00" timeLoss="26.25" rerouteNo="0" devices="tripinfo_down_17" vType="typeNS" speedFactor="0.94" vaporized=""/>
    <tripinfo id="down_19" depart="98.00" departLane="54o_0" departPos="5.10" departSpeed="0.00" departDelay="0.00" arrival="192.00" arrivalLane="53i_0" arrivalPos="10.00" arrivalSpeed="11.60" duration="94.00" routeLength="1015.10" waitingTime="0.00" waitingCount="0" stopTime="0.00" timeLoss="23.94" rerouteNo="0" devices="tripinfo_down_19" vType="typeNS" speedFactor="1.16" vaporized=""/>
    <tripinfo id="up_20" depart="103.00" departLane="53o_0" departPos="5.10" departSpeed="0.00" departDelay="0.00" arrival="193.00" arrivalLane="54i_0" arrivalPos="10.00" arrivalSpeed="11.55" duration="90.00" routeLength="1015.10" waitingTime="0.00" waitingCount="0" stopTime="0.00" timeLoss="14.58" rerouteNo="0" devices="tripinfo_up_20" vType="typeNS" speedFactor="1.02" vaporized=""/>
    <tripinfo id="up_21" depart="108.00" departLane="53o_0" departPos="5.10" departSpeed="0.00" departDelay="2.00" arrival="199.00" arrivalLane="54i_0" arrivalPos="10.00" arrivalSpeed="11.49" duration="91.00" routeLength="1015.10" waitingTime="0.00" waitingCount="0" stopTime="0.00" timeLoss="15.03" rerouteNo="0" devices="tripinfo_up_21" vType="typeNS" speedFactor="1.01" vaporized=""/>
    <tripinfo id="up_22" depart="113.00" departLane="53o_0" departPos="5.10" departSpeed="0.00" departDelay="5.00" arrival="206.00" arrivalLane="54i_0" arrivalPos="10.00" arrivalSpeed="11.06" duration="93.00" routeLength="1015.10" waitingTime="0.00" waitingCount="0" stopTime="0.00" timeLoss="15.68" rerouteNo="0" devices="tripinfo_up_22" vType="typeNS" speedFactor="0.97" vaporized=""/>
    <tripinfo id="left_13" depart="67.00" departLane="52o_0" departPos="5.10" departSpeed="0.00" departDelay="0.00" arrival="229.00" arrivalLane="51i_0" arrivalPos="10.00" arrivalSpeed="12.88" duration="162.00" routeLength="1015.10" waitingTime="57.00" waitingCount="2" stopTime="0.00" timeLoss="90.64" rerouteNo="0" devices="tripinfo_left_13" vType="typeWE" speedFactor="1.12" vaporized=""/>
    <tripinfo id="left_15" depart="74.00" departLane="52o_0" departPos="5.10" departSpeed="0.00" departDelay="0.00" arrival="238.00" arrivalLane="51i_0" arrivalPos="10.00" arrivalSpeed="10.71" duration="164.00" routeLength="1015.10" waitingTime="51.00" waitingCount="2" stopTime="0.00" timeLoss="84.48" rerouteNo="0" devices="tripinfo_left_15" vType="typeWE" speedFactor="0.93" vaporized=""/>
    <tripinfo id="right_16" depart="81.00" departLane="51o_0" departPos="5.10" departSpeed="0.00" departDelay="0.00" arrival="238.00" arrivalLane="52i_0" arrivalPos="10.00" arrivalSpeed="10.40" duration="157.00" routeLength="1015.10" waitingTime="49.00" waitingCount="1" stopTime="0.00" timeLoss="75.12" rerouteNo="0" devices="tripinfo_right_16" vType="typeWE" speedFactor="0.88" vaporized=""/>
    <tripinfo id="right_18" depart="92.00" departLane="51o_0" departPos="5.10" departSpeed="0.00" departDelay="0.00" arrival="240.00" arrivalLane="52i_0" arrivalPos="10.00" arrivalSpeed="10.71" duration="148.00" routeLength="1015.10" waitingTime="39.00" waitingCount="1" stopTime="0.00" timeLoss="69.00" rerouteNo="0" devices="tripinfo_right_18" vType="typeWE" speedFactor="0.94" vaporized=""/>
    <tripinfo id="left_23" depart="122.00" departLane="52o_0" departPos="5.10" departSpeed="0.00" departDelay="2.00" arrival="242.00" arrivalLane="51i_0" arrivalPos="10.00" arrivalSpeed="10.11" duration="120.00" routeLength="1015.10" waitingTime="11.00" waitingCount="1" stopTime="0.00" timeLoss="38.38" rerouteNo="0" devices="tripinfo_left_23" vType="typeWE" speedFactor="0.89" vaporized=""/>
    <tripinfo id="right_26" depart="126.00" departLane="51o_0" departPos="5.10" departSpeed="0.00" departDelay="0.00" arrival="242.00" arrivalLane="52i_0" arrivalPos="10.00" arrivalSpeed="10.89" duration="116.00" routeLength="1015.10" waitingTime="7.00" waitingCount="1" stopTime="0.00" timeLoss="35.80" rerouteNo="0" devices="tripinfo_right_26" vType="typeWE" speedFactor="0.92" vaporized=""/>
    <tripinfo id="up_30" depart="135.00" departLane="53o_0" departPos="5.10" departSpeed="0.00" departDelay="0.00" arrival="244.00" arrivalLane="54i_0" arrivalPos="10.00" arrivalSpeed="13.10" duration="109.00" routeLength="1015.10" waitingTime="14.00" waitingCount="1" stopTime="0.00" timeLoss="39.82" rerouteNo="0" devices="tripinfo_up_30" vType="typeNS" speedFactor="1.18" vaporized=""/>
    <tripinfo id="down_28" depart="129.00" departLane="54o_0" departPos="5.10" departSpeed="0.00" departDelay="0.00" arrival="246.00" arrivalLane="53i_0" arrivalPos="10.00" arrivalSpeed="13.09" duration="117.00" routeLength="1015.10" waitingTime="20.00" waitingCount="1" stopTime="0.00" timeLoss="45.72" rerouteNo="0" devices="tripinfo_down_28" vType="typeNS" speedFactor="1.13" vaporized=""/>
    <tripinfo id="left_24" depart="127.00" departLane="52o_0" departPos="5.10" departSpeed="0.00" departDelay="4.00" arrival="248.00" arrivalLane="51i_0" arrivalPos="10.00" arrivalSpeed="9.33" duration="121.00" routeLength="1015.10" waitingTime="6.00" waitingCount="1" stopTime="0.00" timeLoss="34.16" rerouteNo="0" devices="tripinfo_left_24" vType="typeWE" speedFactor="0.83" vaporized=""/>
    <tripinfo id="down_32" depart="149.00" departLane="54o_0" departPos="5.10" departSpeed="0.00" departDelay="0.00" arrival="252.00" arrivalLane="53i_0" arrivalPos="10.00" arrivalSpeed="11.16" duration="103.00" routeLength="1015.10" waitingTime="2.00" waitingCount="1" stopTime="0.00" timeLoss="27.22" rerouteNo="0" devices="tripinfo_down_32" vType="typeNS" speedFactor="1.01" vaporized=""/>
    <tripinfo id="up_34" depart="163.00" departLane="53o_0" departPos="5.10" departSpeed="0.00" departDelay="1.00" arrival="254.00" arrivalLane="54i_0" arrivalPos="10.00" arrivalSpeed="11.62" duration="91.00" routeLength="1015.10" waitingTime="0.00" waitingCount="0" stopTime="0.00" timeLoss="14.49" rerouteNo="0" devices="tripinfo_up_34" vType="typeNS" speedFactor="0.99" vaporized=""/>
    <tripinfo id="right_27" depart="131.00" departLane="51o_0" departPos="5.10" departSpeed="0.00" departDelay="4.00" arrival="298.00" arrivalLane="52i_0" arrivalPos="10.00" arrivalSpeed="10.77" duration="167.00" routeLength="1015.10" waitingTime="52.00" waitingCount="2" stopTime="0.00" timeLoss="88.37" rerouteNo="0" devices="tripinfo_right_27" vType="typeWE" speedFactor="0.95" vaporized=""/>
    <tripinfo id="left_25" depart="132.00" departLane="52o_0" departPos="5.10" departSpeed="0.00" departDelay="7.00" arrival="301.00" arrivalLane="51i_0" arrivalPos="10.00" arrivalSpeed="10.10" duration="169.00" routeLength="1015.10" waitingTime="49.00" waitingCount="2" stopTime="0.00" timeLoss="86.22" rerouteNo="0" devices="tripinfo_left_25" vType="typeWE" speedFactor="0.87" vaporized=""/>
    <tripinfo id="right_29" depart="136.00" departLane="51o_0" departPos="5.10" departSpeed="0.00" departDelay="4.00" arrival="301.00" arrivalLane="52i_0" arrivalPos="10.00" arrivalSpeed="10.94" duration="165.00" routeLength="1015.10" waitingTime="49.00" waitingCount="1" stopTime="0.00" timeLoss="85.20" rerouteNo="0" devices="tripinfo_right_29" vType="typeWE" speedFactor="0.93" vaporized=""/>
    <tripinfo id="up_40" depart="212.00" departLane="53o_0" departPos="5.10" departSpeed="0.00" departDelay="0.00" arrival="301.00" arrivalLane="54i_0" arrivalPos="10.00" arrivalSpeed="11.82" duration="89.00" routeLength="1015.10" waitingTime="0.00" waitingCount="0" stopTime="0.00" timeLoss="14.46" rerouteNo="0" devices="tripinfo_up_40" vType="typeNS" speedFactor="1.03" vaporized=""/>
    <tripinfo id="left_31" depart="147.00" departLane="52o_0" departPos="5.10" departSpeed="0.00" departDelay="0.00" arrival="303.00" arrivalLane="51i_0" arrivalPos="10.00" arrivalSpeed="10.69" duration="156.00" routeLength="1015.10" waitingTime="45.00" waitingCount="1" stopTime="0.00" timeLoss="85.74" rerouteNo="0" devices="tripinfo_left_31" vType="typeWE" speedFactor="1.15" vaporized=""/>
    <tripinfo id="down_39" depart="206.00" departLane="54o_0" departPos="5.10" departSpeed="0.00" departDelay="0.00" arrival="313.00" arrivalLane="53i_0" arrivalPos="10.00" arrivalSpeed="10.25" duration="107.00" routeLength="1015.10" waitingTime="0.00" waitingCount="0" stopTime="0.00" timeLoss="25.71" rerouteNo="0" devices="tripinfo_down_39" vType="typeNS" speedFactor="0.90" vaporized=""/>
    <tripinfo id="down_42" depart="220.00" departLane="54o_0" departPos="5.10" departSpeed="0.00" departDelay="0.00" arrival="315.00" arrivalLane="53i_0" arrivalPos="10.00" arrivalSpeed="11.00" duration="95.00" routeLength="1015.10" waitingTime="0.00" waitingCount="0" stopTime="0.00" timeLoss="22.27" rerouteNo="0" devices="tripinfo_down_42" vType="typeNS" speedFactor="1.09" vaporized=""/>
    <tripinfo id="down_45" depart="241.00" departLane="54o_0" departPos="5.10" departSpeed="0.00" departDelay="0.00" arrival="328.00" arrivalLane="53i_0" arrivalPos="10.00" arrivalSpeed="12.00" duration="87.00" routeLength="1015.10" waitingTime="0.00" waitingCount="0" stopTime="0.00" timeLoss="14.59" rerouteNo="0" devices="tripinfo_down_45" vType="typeNS" speedFactor="1.09" vaporized=""/>
    <tripinfo id="up_46" depart="248.00" departLane="53o_0" departPos="5.10" departSpeed="0.00" departDelay="0.00" arrival="339.00" arrivalLane="54i_0" arrivalPos="10.00" arrivalSpeed="11.34" duration="91.00" routeLength="1015.10" waitingTime="0.00" waitingCount="0" stopTime="0.00" timeLoss="14.54" rerouteNo="0" devices="tripinfo_up_46" vType="typeNS" speedFactor="1.00" vaporized=""/>
    <tripinfo id="up_51" depart="259.00" departLane="53o_0" departPos="5.10" departSpeed="0.00" departDelay="0.00" arrival="345.00" arrivalLane="54i_0" arrivalPos="10.00" arrivalSpeed="13.27" duration="86.00" routeLength="1015.10" waitingTime="0.00" waitingCount="0" stopTime="0.00" timeLoss="16.64" rerouteNo="0" devices="tripinfo_up_51" vType="typeNS" speedFactor="1.17" vaporized=""/>
    <tripinfo id="up_53" depart="264.00" departLane="53o_0" departPos="5.10" departSpeed="0.00" departDelay="1.00" arrival="351.00" arrivalLane="54i_0" arrivalPos="10.00" arrivalSpeed="12.69" duration="87.00" routeLength="1015.10" waitingTime="0.00" waitingCount="0" stopTime="0.00" timeLoss="14.40" rerouteNo="0" devices="tripinfo_up_53" vType="typeNS" speedFactor="1.10" vaporized=""/>
    <tripinfo id="down_48" depart="256.00" departLane="54o_0" departPos="5.10" departSpeed="0.00" departDelay="0.00" arrival="364.00" arrivalLane="53i_0" arrivalPos="10.00" arrivalSpeed="10.27" duration="108.00" routeLength="1015.10" waitingTime="2.00" waitingCount="1" stopTime="0.00" timeLoss="25.99" rerouteNo="0" devices="tripinfo_down_48" vType="typeNS" speedFactor="0.88" vaporized=""/>
    <tripinfo id="down_50" depart="261.00" departLane="54o_0" departPos="5.10" departSpeed="0.00" departDelay="3.00" arrival="368.00" arrivalLane="53i_0" arrivalPos="10.00" arrivalSpeed="9.94" duration="107.00" routeLength="1015.10" waitingTime="0.00" waitingCount="0" stopTime="0.00" timeLoss="22.92" rerouteNo="0" devices="tripinfo_down_50" vType="typeNS" speedFactor="0.85" vaporized=""/>
    <tripinfo id="down_60" depart="293.00" departLane="54o_0" departPos="5.10" departSpeed="0.00" departDelay="0.00" arrival="380.00" arrivalLane="53i_0" arrivalPos="10.00" arrivalSpeed="12.49" duration="87.00" routeLength="1015.10" waitingTime="0.00" waitingCount="0" stopTime="0.00" timeLoss="14.60" rerouteNo="0" devices="tripinfo_down_60" vType="typeNS" speedFactor="1.08" vaporized=""/>
    <tripinfo id="up_56" depart="284.00" departLane="53o_0" departPos="5.10" departSpeed="0.00" departDelay="0.00" arrival="381.00" arrivalLane="54i_0" arrivalPos="10.00" arrivalSpeed="10.52" duration="97.00" routeLength="1015.10" waitingTime="0.00" waitingCount="0" stopTime="0.00" timeLoss="15.90" rerouteNo="0" devices="tripinfo_up_56" vType="typeNS" speedFactor="0.90" vaporized=""/>
    <tripinfo id="left_33" depart="159.00" departLane="52o_0" departPos="5.10" departSpeed="0.00" departDelay="0.00" arrival="399.00" arrivalLane="51i_0" arrivalPos="10.00" arrivalSpeed="12.95" duration="240.00" routeLength="1015.10" waitingTime="134.00" waitingCount="3" stopTime="0.00" timeLoss="170.70" rerouteNo="0" devices="tripinfo_left_33" vType="typeWE" speedFactor="1.17" vaporized=""/>
    <tripinfo id="right_35" depart="171.00" departLane="51o_0" departPos="5.10" departSpeed="0.00" departDelay="0.00" arrival="404.00" arrivalLane="52i_0" arrivalPos="10.00" arrivalSpeed="11.90" duration="233.00" routeLength="1015.10" waitingTime="124.00" waitingCount="3" stopTime="0.00" timeLoss="157.58" rerouteNo="0" devices="tripinfo_right_35" vType="typeWE" speedFactor="1.02" vaporized=""/>
    <tripinfo id="left_38" depart="204.00" departLane="52o_0" departPos="5.10" departSpeed="0.00" departDelay="0.00" arrival="404.00" arrivalLane="51i_0" arrivalPos="10.00" arrivalSpeed="12.79" duration="200.00" routeLength="1015.10" waitingTime="96.00" waitingCount="2" stopTime="0.00" timeLoss="128.09" rerouteNo="0" devices="tripinfo_left_38" vType="typeWE" speedFactor="1.10" vaporized=""/>
    <tripinfo id="right_36" depart="179.00" departLane="51o_0" departPos="5.10" departSpeed="0.00" departDelay="0.00" arrival="408.00" arrivalLane="52i_0" arrivalPos="10.00" arrivalSpeed="11.08" duration="229.00" routeLength="1015.10" waitingTime="115.00" waitingCount="3" stopTime="0.00" timeLoss="151.23" rerouteNo="0" devices="tripinfo_right_36" vType="typeWE" speedFactor="0.97" vaporized=""/>
    <tripinfo id="right_37" depart="184.00" departLane="51o_0" departPos="5.10" departSpeed="0.00" departDelay="2.00" arrival="409.00" arrivalLane="52i_0" arrivalPos="10.00" arrivalSpeed="11.31" duration="225.00" routeLength="1015.10" waitingTime="112.00" waitingCount="3" stopTime="0.00" timeLoss="155.99" rerouteNo="0" devices="tripinfo_right_37" vType="typeWE" speedFactor="1.18" vaporized=""/>
    <tripinfo id="right_41" depart="216.00" departLane="51o_0" departPos="5.10" departSpeed="0.00" departDelay="0.00" arrival="413.00" arrivalLane="52i_0" arrivalPos="10.00" arrivalSpeed="11.16" duration="197.00" routeLength="1015.10" waitingTime="89.00" waitingCount="2" stopTime="0.00" timeLoss="118.60" rerouteNo="0" devices="tripinfo_right_41" vType="typeWE" speedFactor="0.96" vaporized=""/>
    <tripinfo id="right_43" depart="229.00" departLane="51o_0" departPos="5.10" departSpeed="0.00" departDelay="2.00" arrival="414.00" arrivalLane="52i_0" arrivalPos="10.00" arrivalSpeed="11.45" duration="185.00" routeLength="1015.10" waitingTime="77.00" waitingCount="2" stopTime="0.00" timeLoss="110.74" rerouteNo="0" devices="tripinfo_right_43" vType="typeWE" speedFactor="1.04" vaporized=""/>
    <tripinfo id="left_47" depart="253.00" departLane="52o_0" departPos="5.10" departSpeed="0.00" departDelay="0.00" arrival="414.00" arrivalLane="51i_0" arrivalPos="10.00" arrivalSpeed="10.42" duration="161.00" routeLength="1015.10" waitingTime="49.00" waitingCount="1" stopTime="0.00" timeLoss="79.82" rerouteNo="0" devices="tripinfo_left_47" vType="typeWE" speedFactor="0.90" vaporized=""/>
    <tripinfo id="right_44" depart="239.00" departLane="51o_0" departPos="5.10" departSpeed="0.00" departDelay="0.00" arrival="416.00" arrivalLane="52i_0" arrivalPos="10.00" arrivalSpeed="11.73" duration="177.00" routeLength="1015.10" waitingTime="68.00" waitingCount="2" stopTime="0.00" timeLoss="102.99" rerouteNo="0" devices="tripinfo_right_44" vType="typeWE" speedFactor="1.04" vaporized=""/>
    <tripinfo id="left_49" depart="258.00" departLane="52o_0" departPos="5.10" departSpeed="0.00" departDelay="0.00" arrival="418.00" arrivalLane="51i_0" arrivalPos="10.00" arrivalSpeed="9.82" duration="160.00" routeLength="1015.10" waitingTime="49.00" waitingCount="1" stopTime="0.00" timeLoss="75.96" rerouteNo="0" devices="tripinfo_left_49" vType="typeWE" speedFactor="0.85" vaporized=""/>
    <tripinfo id="right_59" depart="292.00" departLane="51o_0" departPos="5.10" departSpeed="0.00" departDelay="0.00" arrival="418.00" arrivalLane="52i_0" arrivalPos="10.00" arrivalSpeed="11.20" duration="126.00" routeLength="1015.10" waitingTime="21.00" waitingCount="1" stopTime="0.00" timeLoss="48.56" rerouteNo="0" devices="tripinfo_right_59" vType="typeWE" speedFactor="0.97" vaporized=""/>
    <tripinfo id="left_52" depart="263.00" departLane="52o_0" departPos="5.10" departSpeed="0.00" departDelay="1.00" arrival="420.00" arrivalLane="51i_0" arrivalPos="10.00" arrivalSpeed="10.67" duration="157.00" routeLength="1015.10" waitingTime="46.00" waitingCount="1" stopTime="0.00" timeLoss="81.78" rerouteNo="0" devices="tripinfo_left_52" vType="typeWE" speedFactor="1.02" vaporized=""/>
    <tripinfo id="right_61" depart="297.00" departLane="51o_0" departPos="5.10" departSpeed="0.00" departDelay="1.00" arrival="420.00" arrivalLane="52i_0" arrivalPos="10.00" arrivalSpeed="11.71" duration="123.00" routeLength="1015.10" waitingTime="16.00" waitingCount="1" stopTime="0.00" timeLoss="51.52" rerouteNo="0" devices="tripinfo_right_61" vType="typeWE" speedFactor="1.12" vaporized=""/>
    <tripinfo id="left_54" depart="281.00" departLane="52o_0" departPos="5.10" departSpeed="0.00" departDelay="0.00" arrival="422.00" arrivalLane="51i_0" arrivalPos="10.00" arrivalSpeed="11.02" duration="141.00" routeLength="1015.10" waitingTime="29.00" waitingCount="1" stopTime="0.00" timeLoss="64.92" rerouteNo="0" devices="tripinfo_left_54" vType="typeWE" speedFactor="1.00" vaporized=""/>
    <tripinfo id="left_55" depart="286.00" departLane="52o_0" departPos="5.10" departSpeed="0.00" departDelay="3.00" arrival="424.00" arrivalLane="51i_0" arrivalPos="10.00" arrivalSpeed="11.63" duration="138.00" routeLength="1015.10" waitingTime="26.00" waitingCount="1" stopTime="0.00" timeLoss="61.34" rerouteNo="0" devices="tripinfo_left_55" vType="typeWE" speedFactor="1.00" vaporized=""/>
    <tripinfo id="left_57" depart="291.00" departLane="52o_0" departPos="5.10" departSpeed="0.00" departDelay="4.00" arrival="425.00" arrivalLane="51i_0" arrivalPos="10.00" arrivalSpeed="11.39" duration="134.00" routeLength="1015.10" waitingTime="22.00" waitingCount="1" stopTime="0.00" timeLoss="63.60" rerouteNo="0" devices="tripinfo_left_57" vType="typeWE" speedFactor="1.14" vaporized=""/>
    <tripinfo id="left_58" depart="298.00" departLane="52o_0" departPos="5.10" departSpeed="0.00" departDelay="7.00" arrival="427.00" arrivalLane="51i_0" arrivalPos="10.00" arrivalSpeed="11.83" duration="129.00" routeLength="1015.10" waitingTime="16.00" waitingCount="1" stopTime="0.00" timeLoss="53.97" rerouteNo="0" devices="tripinfo_left_58" vType="typeWE" speedFactor="1.02" vaporized=""/>
    <tripinfo id="down_64" depart="330.00" departLane="54o_0" departPos="5.10" departSpeed="0.00" departDelay="0.00" arrival="436.00" arrivalLane="53i_0" arrivalPos="10.00" arrivalSpeed="11.00" duration="106.00" routeLength="1015.10" waitingTime="1.00" waitingCount="1" stopTime="0.00" timeLoss="26.66" rerouteNo="0" devices="tripinfo_down_64" vType="typeNS" speedFactor="0.94" vaporized=""/>
    <tripinfo id="up_66" depart="344.00" departLane="53o_0" departPos="5.10" departSpeed="0.00" departDelay="0.00" arrival="442.00" arrivalLane="54i_0" arrivalPos="10.00" arrivalSpeed="10.46" duration="98.00" routeLength="1015.10" waitingTime="0.00" waitingCount="0" stopTime="0.00" timeLoss="16.81" rerouteNo="0" devices="tripinfo_up_66" vType="typeNS" speedFactor="0.91" vaporized=""/>
    <tripinfo id="up_67" depart="349.00" departLane="53o_0" departPos="5.10" departSpeed="0.00" departDelay="2.00" arrival="445.00" arrivalLane="54i_0" arrivalPos="10.00" arrivalSpeed="10.72" duration="96.00" routeLength="1015.10" waitingTime="1.00" waitingCount="1" stopTime="0.00" timeLoss="15.35" rerouteNo="0" devices="tripinfo_up_67" vType="typeNS" speedFactor="0.91" vaporized=""/>
    <tripinfo id="down_72" depart="362.00" departLane="54o_0" departPos="5.10" departSpeed="0.00" departDelay="0.00" arrival="457.00" arrivalLane="53i_0" arrivalPos="10.00" arrivalSpeed="11.13" duration="95.00" routeLength="1015.10" waitingTime="0.00" waitingCount="0" stopTime="0.00" timeLoss="15.42" rerouteNo="0" devices="tripinfo_down_72" vType="typeNS" speedFactor="0.94" vaporized=""/>
    <tripinfo id="right_69" depart="352.00" departLane="51o_0" departPos="5.10" departSpeed="0.00" departDelay="0.00" arrival="477.00" arrivalLane="52i_0" arrivalPos="10.00" arrivalSpeed="11.65" duration="125.00" routeLength="1015.10" waitingTime="25.00" waitingCount="1" stopTime="0.00" timeLoss="50.02" rerouteNo="0" devices="tripinfo_right_69" vType="typeWE" speedFactor="1.02" vaporized=""/>
    <tripinfo id="left_62" depart="303.00" departLane="52o_0" departPos="5.10" departSpeed="0.00" departDelay="7.00" arrival="478.00" arrivalLane="51i_0" arrivalPos="10.00" arrivalSpeed="11.72" duration="175.00" routeLength="1015.10" waitingTime="60.00" waitingCount="2" stopTime="0.00" timeLoss="99.72" rerouteNo="0" devices="tripinfo_left_62" vType="typeWE" speedFactor="1.02" vaporized=""/>
    <tripinfo id="right_73" depart="363.00" departLane="51o_0" departPos="5.10" departSpeed="0.00" departDelay="0.00" arrival="479.00" arrivalLane="52i_0" arrivalPos="10.00" arrivalSpeed="12.43" duration="116.00" routeLength="1015.10" waitingTime="15.00" waitingCount="1" stopTime="0.00" timeLoss="42.11" rerouteNo="0" devices="tripinfo_right_73" vType="typeWE" speedFactor="1.06" vaporized=""/>
    <tripinfo id="left_63" depart="308.00" departLane="52o_0" departPos="5.10" departSpeed="0.00" departDelay="10.00" arrival="481.00" arrivalLane="51i_0" arrivalPos="10.00" arrivalSpeed="11.73" duration="173.00" routeLength="1015.10" waitingTime="53.00" waitingCount="2" stopTime="0.00" timeLoss="96.28" rerouteNo="0" devices="tripinfo_left_63" vType="typeWE" speedFactor="0.99" vaporized=""/>
    <tripinfo id="right_76" depart="389.00" departLane="51o_0" departPos="5.10" departSpeed="0.00" departDelay="0.00" arrival="481.00" arrivalLane="52i_0" arrivalPos="10.00" arrivalSpeed="11.62" duration="92.00" routeLength="1015.10" waitingTime="0.00" waitingCount="0" stopTime="0.00" timeLoss="16.99" rerouteNo="0" devices="tripinfo_right_76" vType="typeWE" speedFactor="1.03" vaporized=""/>
    <tripinfo id="left_65" depart="343.00" departLane="52o_0" departPos="5.10" departSpeed="0.00" departDelay="0.00" arrival="488.00" arrivalLane="51i_0" arrivalPos="10.00" arrivalSpeed="10.27" duration="145.00" routeLength="1015.10" waitingTime="36.00" waitingCount="1" stopTime="0.00" timeLoss="62.81" rerouteNo="0" devices="tripinfo_left_65" vType="typeWE" speedFactor="0.88" vaporized=""/>
    <tripinfo id="left_68" depart="350.00" departLane="52o_0" departPos="5.10" departSpeed="0.00" departDelay="0.00" arrival="490.00" arrivalLane="51i_0" arrivalPos="10.00" arrivalSpeed="10.74" duration="140.00" routeLength="1015.10" waitingTime="32.00" waitingCount="1" stopTime="0.00" timeLoss="65.32" rerouteNo="0" devices="tripinfo_left_68" vType="typeWE" speedFactor="1.04" vaporized=""/>