<?xml version="1.0" encoding="UTF-8"?>

<!-- generated on 2024-01-22 11:57:54 by Eclipse SUMO GUI Version 1.19.0
<configuration xmlns:xsi="http://www.w3.org/2001/XMLSchema-instance" xsi:noNamespaceSchemaLocation="http://sumo.dlr.de/xsd/sumoConfiguration.xsd">

    <input>
        <net-file value="src/Intersection/Configuration/cross.net.xml"/>
        <route-files value="src/Intersection/Configuration/cross.rou.xml"/>
        <additional-files value="src/Intersection/Configuration/cross.det.xml"/>
    </input>

    <output>
        <tripinfo-output value="src/Intersection/Configuration/tripinfo.xml"/>
    </output>

    <time>
        <begin value="0"/>
    </time>

    <report>
        <verbose value="true"/>
        <no-step-log value="true"/>
    </report>

    <traci_server>
        <remote-port value="50793"/>
    </traci_server>

</configuration>
-->

<tripinfos xmlns:xsi="http://www.w3.org/2001/XMLSchema-instance" xsi:noNamespaceSchemaLocation="http://sumo.dlr.de/xsd/tripinfo_file.xsd">
</tripinfos>
